/*--------------------------------*- C++ -*----------------------------------*\
| =========                 |                                                 |
| \\      /  F ield         | OpenFOAM: The Open Source CFD Toolbox           |
|  \\    /   O peration     | Version:  v2012                                 |
|   \\  /    A nd           | Website:  www.openfoam.com                      |
|    \\/     M anipulation  |                                                 |
\*---------------------------------------------------------------------------*/
FoamFile
{
    version     2.0;
    format      ascii;
    class       volScalarField;
    location    "0";
    object      b;
}
// * * * * * * * * * * * * * * * * * * * * * * * * * * * * * * * * * * * * * //

dimensions      [0 1 0 0 0 0 0];


internalField   nonuniform List<scalar> 
10000
(
4.9005
4.8025
4.7065
4.6125
4.5205
4.4305
4.3425
4.2565
4.1725
4.0905
4.0105
3.9325
3.8565
3.7825
3.7105
3.6405
3.5725
3.5065
3.4425
3.3805
3.3205
3.2625
3.2065
3.1525
3.1005
3.0505
3.0025
2.9565
2.9125
2.8705
2.8305
2.7925
2.7565
2.7225
2.6905
2.6605
2.6325
2.6065
2.5825
2.5605
2.5405
2.5225
2.5065
2.4925
2.4805
2.4705
2.4625
2.4565
2.4525
2.4505
2.4505
2.4525
2.4565
2.4625
2.4705
2.4805
2.4925
2.5065
2.5225
2.5405
2.5605
2.5825
2.6065
2.6325
2.6605
2.6905
2.7225
2.7565
2.7925
2.8305
2.8705
2.9125
2.9565
3.0025
3.0505
3.1005
3.1525
3.2065
3.2625
3.3205
3.3805
3.4425
3.5065
3.5725
3.6405
3.7105
3.7825
3.8565
3.9325
4.0105
4.0905
4.1725
4.2565
4.3425
4.4305
4.5205
4.6125
4.7065
4.8025
4.9005
4.8025
4.7045
4.6085
4.5145
4.4225
4.3325
4.2445
4.1585
4.0745
3.9925
3.9125
3.8345
3.7585
3.6845
3.6125
3.5425
3.4745
3.4085
3.3445
3.2825
3.2225
3.1645
3.1085
3.0545
3.0025
2.9525
2.9045
2.8585
2.8145
2.7725
2.7325
2.6945
2.6585
2.6245
2.5925
2.5625
2.5345
2.5085
2.4845
2.4625
2.4425
2.4245
2.4085
2.3945
2.3825
2.3725
2.3645
2.3585
2.3545
2.3525
2.3525
2.3545
2.3585
2.3645
2.3725
2.3825
2.3945
2.4085
2.4245
2.4425
2.4625
2.4845
2.5085
2.5345
2.5625
2.5925
2.6245
2.6585
2.6945
2.7325
2.7725
2.8145
2.8585
2.9045
2.9525
3.0025
3.0545
3.1085
3.1645
3.2225
3.2825
3.3445
3.4085
3.4745
3.5425
3.6125
3.6845
3.7585
3.8345
3.9125
3.9925
4.0745
4.1585
4.2445
4.3325
4.4225
4.5145
4.6085
4.7045
4.8025
4.7065
4.6085
4.5125
4.4185
4.3265
4.2365
4.1485
4.0625
3.9785
3.8965
3.8165
3.7385
3.6625
3.5885
3.5165
3.4465
3.3785
3.3125
3.2485
3.1865
3.1265
3.0685
3.0125
2.9585
2.9065
2.8565
2.8085
2.7625
2.7185
2.6765
2.6365
2.5985
2.5625
2.5285
2.4965
2.4665
2.4385
2.4125
2.3885
2.3665
2.3465
2.3285
2.3125
2.2985
2.2865
2.2765
2.2685
2.2625
2.2585
2.2565
2.2565
2.2585
2.2625
2.2685
2.2765
2.2865
2.2985
2.3125
2.3285
2.3465
2.3665
2.3885
2.4125
2.4385
2.4665
2.4965
2.5285
2.5625
2.5985
2.6365
2.6765
2.7185
2.7625
2.8085
2.8565
2.9065
2.9585
3.0125
3.0685
3.1265
3.1865
3.2485
3.3125
3.3785
3.4465
3.5165
3.5885
3.6625
3.7385
3.8165
3.8965
3.9785
4.0625
4.1485
4.2365
4.3265
4.4185
4.5125
4.6085
4.7065
4.6125
4.5145
4.4185
4.3245
4.2325
4.1425
4.0545
3.9685
3.8845
3.8025
3.7225
3.6445
3.5685
3.4945
3.4225
3.3525
3.2845
3.2185
3.1545
3.0925
3.0325
2.9745
2.9185
2.8645
2.8125
2.7625
2.7145
2.6685
2.6245
2.5825
2.5425
2.5045
2.4685
2.4345
2.4025
2.3725
2.3445
2.3185
2.2945
2.2725
2.2525
2.2345
2.2185
2.2045
2.1925
2.1825
2.1745
2.1685
2.1645
2.1625
2.1625
2.1645
2.1685
2.1745
2.1825
2.1925
2.2045
2.2185
2.2345
2.2525
2.2725
2.2945
2.3185
2.3445
2.3725
2.4025
2.4345
2.4685
2.5045
2.5425
2.5825
2.6245
2.6685
2.7145
2.7625
2.8125
2.8645
2.9185
2.9745
3.0325
3.0925
3.1545
3.2185
3.2845
3.3525
3.4225
3.4945
3.5685
3.6445
3.7225
3.8025
3.8845
3.9685
4.0545
4.1425
4.2325
4.3245
4.4185
4.5145
4.6125
4.5205
4.4225
4.3265
4.2325
4.1405
4.0505
3.9625
3.8765
3.7925
3.7105
3.6305
3.5525
3.4765
3.4025
3.3305
3.2605
3.1925
3.1265
3.0625
3.0005
2.9405
2.8825
2.8265
2.7725
2.7205
2.6705
2.6225
2.5765
2.5325
2.4905
2.4505
2.4125
2.3765
2.3425
2.3105
2.2805
2.2525
2.2265
2.2025
2.1805
2.1605
2.1425
2.1265
2.1125
2.1005
2.0905
2.0825
2.0765
2.0725
2.0705
2.0705
2.0725
2.0765
2.0825
2.0905
2.1005
2.1125
2.1265
2.1425
2.1605
2.1805
2.2025
2.2265
2.2525
2.2805
2.3105
2.3425
2.3765
2.4125
2.4505
2.4905
2.5325
2.5765
2.6225
2.6705
2.7205
2.7725
2.8265
2.8825
2.9405
3.0005
3.0625
3.1265
3.1925
3.2605
3.3305
3.4025
3.4765
3.5525
3.6305
3.7105
3.7925
3.8765
3.9625
4.0505
4.1405
4.2325
4.3265
4.4225
4.5205
4.4305
4.3325
4.2365
4.1425
4.0505
3.9605
3.8725
3.7865
3.7025
3.6205
3.5405
3.4625
3.3865
3.3125
3.2405
3.1705
3.1025
3.0365
2.9725
2.9105
2.8505
2.7925
2.7365
2.6825
2.6305
2.5805
2.5325
2.4865
2.4425
2.4005
2.3605
2.3225
2.2865
2.2525
2.2205
2.1905
2.1625
2.1365
2.1125
2.0905
2.0705
2.0525
2.0365
2.0225
2.0105
2.0005
1.9925
1.9865
1.9825
1.9805
1.9805
1.9825
1.9865
1.9925
2.0005
2.0105
2.0225
2.0365
2.0525
2.0705
2.0905
2.1125
2.1365
2.1625
2.1905
2.2205
2.2525
2.2865
2.3225
2.3605
2.4005
2.4425
2.4865
2.5325
2.5805
2.6305
2.6825
2.7365
2.7925
2.8505
2.9105
2.9725
3.0365
3.1025
3.1705
3.2405
3.3125
3.3865
3.4625
3.5405
3.6205
3.7025
3.7865
3.8725
3.9605
4.0505
4.1425
4.2365
4.3325
4.4305
4.3425
4.2445
4.1485
4.0545
3.9625
3.8725
3.7845
3.6985
3.6145
3.5325
3.4525
3.3745
3.2985
3.2245
3.1525
3.0825
3.0145
2.9485
2.8845
2.8225
2.7625
2.7045
2.6485
2.5945
2.5425
2.4925
2.4445
2.3985
2.3545
2.3125
2.2725
2.2345
2.1985
2.1645
2.1325
2.1025
2.0745
2.0485
2.0245
2.0025
1.9825
1.9645
1.9485
1.9345
1.9225
1.9125
1.9045
1.8985
1.8945
1.8925
1.8925
1.8945
1.8985
1.9045
1.9125
1.9225
1.9345
1.9485
1.9645
1.9825
2.0025
2.0245
2.0485
2.0745
2.1025
2.1325
2.1645
2.1985
2.2345
2.2725
2.3125
2.3545
2.3985
2.4445
2.4925
2.5425
2.5945
2.6485
2.7045
2.7625
2.8225
2.8845
2.9485
3.0145
3.0825
3.1525
3.2245
3.2985
3.3745
3.4525
3.5325
3.6145
3.6985
3.7845
3.8725
3.9625
4.0545
4.1485
4.2445
4.3425
4.2565
4.1585
4.0625
3.9685
3.8765
3.7865
3.6985
3.6125
3.5285
3.4465
3.3665
3.2885
3.2125
3.1385
3.0665
2.9965
2.9285
2.8625
2.7985
2.7365
2.6765
2.6185
2.5625
2.5085
2.4565
2.4065
2.3585
2.3125
2.2685
2.2265
2.1865
2.1485
2.1125
2.0785
2.0465
2.0165
1.9885
1.9625
1.9385
1.9165
1.8965
1.8785
1.8625
1.8485
1.8365
1.8265
1.8185
1.8125
1.8085
1.8065
1.8065
1.8085
1.8125
1.8185
1.8265
1.8365
1.8485
1.8625
1.8785
1.8965
1.9165
1.9385
1.9625
1.9885
2.0165
2.0465
2.0785
2.1125
2.1485
2.1865
2.2265
2.2685
2.3125
2.3585
2.4065
2.4565
2.5085
2.5625
2.6185
2.6765
2.7365
2.7985
2.8625
2.9285
2.9965
3.0665
3.1385
3.2125
3.2885
3.3665
3.4465
3.5285
3.6125
3.6985
3.7865
3.8765
3.9685
4.0625
4.1585
4.2565
4.1725
4.0745
3.9785
3.8845
3.7925
3.7025
3.6145
3.5285
3.4445
3.3625
3.2825
3.2045
3.1285
3.0545
2.9825
2.9125
2.8445
2.7785
2.7145
2.6525
2.5925
2.5345
2.4785
2.4245
2.3725
2.3225
2.2745
2.2285
2.1845
2.1425
2.1025
2.0645
2.0285
1.9945
1.9625
1.9325
1.9045
1.8785
1.8545
1.8325
1.8125
1.7945
1.7785
1.7645
1.7525
1.7425
1.7345
1.7285
1.7245
1.7225
1.7225
1.7245
1.7285
1.7345
1.7425
1.7525
1.7645
1.7785
1.7945
1.8125
1.8325
1.8545
1.8785
1.9045
1.9325
1.9625
1.9945
2.0285
2.0645
2.1025
2.1425
2.1845
2.2285
2.2745
2.3225
2.3725
2.4245
2.4785
2.5345
2.5925
2.6525
2.7145
2.7785
2.8445
2.9125
2.9825
3.0545
3.1285
3.2045
3.2825
3.3625
3.4445
3.5285
3.6145
3.7025
3.7925
3.8845
3.9785
4.0745
4.1725
4.0905
3.9925
3.8965
3.8025
3.7105
3.6205
3.5325
3.4465
3.3625
3.2805
3.2005
3.1225
3.0465
2.9725
2.9005
2.8305
2.7625
2.6965
2.6325
2.5705
2.5105
2.4525
2.3965
2.3425
2.2905
2.2405
2.1925
2.1465
2.1025
2.0605
2.0205
1.9825
1.9465
1.9125
1.8805
1.8505
1.8225
1.7965
1.7725
1.7505
1.7305
1.7125
1.6965
1.6825
1.6705
1.6605
1.6525
1.6465
1.6425
1.6405
1.6405
1.6425
1.6465
1.6525
1.6605
1.6705
1.6825
1.6965
1.7125
1.7305
1.7505
1.7725
1.7965
1.8225
1.8505
1.8805
1.9125
1.9465
1.9825
2.0205
2.0605
2.1025
2.1465
2.1925
2.2405
2.2905
2.3425
2.3965
2.4525
2.5105
2.5705
2.6325
2.6965
2.7625
2.8305
2.9005
2.9725
3.0465
3.1225
3.2005
3.2805
3.3625
3.4465
3.5325
3.6205
3.7105
3.8025
3.8965
3.9925
4.0905
4.0105
3.9125
3.8165
3.7225
3.6305
3.5405
3.4525
3.3665
3.2825
3.2005
3.1205
3.0425
2.9665
2.8925
2.8205
2.7505
2.6825
2.6165
2.5525
2.4905
2.4305
2.3725
2.3165
2.2625
2.2105
2.1605
2.1125
2.0665
2.0225
1.9805
1.9405
1.9025
1.8665
1.8325
1.8005
1.7705
1.7425
1.7165
1.6925
1.6705
1.6505
1.6325
1.6165
1.6025
1.5905
1.5805
1.5725
1.5665
1.5625
1.5605
1.5605
1.5625
1.5665
1.5725
1.5805
1.5905
1.6025
1.6165
1.6325
1.6505
1.6705
1.6925
1.7165
1.7425
1.7705
1.8005
1.8325
1.8665
1.9025
1.9405
1.9805
2.0225
2.0665
2.1125
2.1605
2.2105
2.2625
2.3165
2.3725
2.4305
2.4905
2.5525
2.6165
2.6825
2.7505
2.8205
2.8925
2.9665
3.0425
3.1205
3.2005
3.2825
3.3665
3.4525
3.5405
3.6305
3.7225
3.8165
3.9125
4.0105
3.9325
3.8345
3.7385
3.6445
3.5525
3.4625
3.3745
3.2885
3.2045
3.1225
3.0425
2.9645
2.8885
2.8145
2.7425
2.6725
2.6045
2.5385
2.4745
2.4125
2.3525
2.2945
2.2385
2.1845
2.1325
2.0825
2.0345
1.9885
1.9445
1.9025
1.8625
1.8245
1.7885
1.7545
1.7225
1.6925
1.6645
1.6385
1.6145
1.5925
1.5725
1.5545
1.5385
1.5245
1.5125
1.5025
1.4945
1.4885
1.4845
1.4825
1.4825
1.4845
1.4885
1.4945
1.5025
1.5125
1.5245
1.5385
1.5545
1.5725
1.5925
1.6145
1.6385
1.6645
1.6925
1.7225
1.7545
1.7885
1.8245
1.8625
1.9025
1.9445
1.9885
2.0345
2.0825
2.1325
2.1845
2.2385
2.2945
2.3525
2.4125
2.4745
2.5385
2.6045
2.6725
2.7425
2.8145
2.8885
2.9645
3.0425
3.1225
3.2045
3.2885
3.3745
3.4625
3.5525
3.6445
3.7385
3.8345
3.9325
3.8565
3.7585
3.6625
3.5685
3.4765
3.3865
3.2985
3.2125
3.1285
3.0465
2.9665
2.8885
2.8125
2.7385
2.6665
2.5965
2.5285
2.4625
2.3985
2.3365
2.2765
2.2185
2.1625
2.1085
2.0565
2.0065
1.9585
1.9125
1.8685
1.8265
1.7865
1.7485
1.7125
1.6785
1.6465
1.6165
1.5885
1.5625
1.5385
1.5165
1.4965
1.4785
1.4625
1.4485
1.4365
1.4265
1.4185
1.4125
1.4085
1.4065
1.4065
1.4085
1.4125
1.4185
1.4265
1.4365
1.4485
1.4625
1.4785
1.4965
1.5165
1.5385
1.5625
1.5885
1.6165
1.6465
1.6785
1.7125
1.7485
1.7865
1.8265
1.8685
1.9125
1.9585
2.0065
2.0565
2.1085
2.1625
2.2185
2.2765
2.3365
2.3985
2.4625
2.5285
2.5965
2.6665
2.7385
2.8125
2.8885
2.9665
3.0465
3.1285
3.2125
3.2985
3.3865
3.4765
3.5685
3.6625
3.7585
3.8565
3.7825
3.6845
3.5885
3.4945
3.4025
3.3125
3.2245
3.1385
3.0545
2.9725
2.8925
2.8145
2.7385
2.6645
2.5925
2.5225
2.4545
2.3885
2.3245
2.2625
2.2025
2.1445
2.0885
2.0345
1.9825
1.9325
1.8845
1.8385
1.7945
1.7525
1.7125
1.6745
1.6385
1.6045
1.5725
1.5425
1.5145
1.4885
1.4645
1.4425
1.4225
1.4045
1.3885
1.3745
1.3625
1.3525
1.3445
1.3385
1.3345
1.3325
1.3325
1.3345
1.3385
1.3445
1.3525
1.3625
1.3745
1.3885
1.4045
1.4225
1.4425
1.4645
1.4885
1.5145
1.5425
1.5725
1.6045
1.6385
1.6745
1.7125
1.7525
1.7945
1.8385
1.8845
1.9325
1.9825
2.0345
2.0885
2.1445
2.2025
2.2625
2.3245
2.3885
2.4545
2.5225
2.5925
2.6645
2.7385
2.8145
2.8925
2.9725
3.0545
3.1385
3.2245
3.3125
3.4025
3.4945
3.5885
3.6845
3.7825
3.7105
3.6125
3.5165
3.4225
3.3305
3.2405
3.1525
3.0665
2.9825
2.9005
2.8205
2.7425
2.6665
2.5925
2.5205
2.4505
2.3825
2.3165
2.2525
2.1905
2.1305
2.0725
2.0165
1.9625
1.9105
1.8605
1.8125
1.7665
1.7225
1.6805
1.6405
1.6025
1.5665
1.5325
1.5005
1.4705
1.4425
1.4165
1.3925
1.3705
1.3505
1.3325
1.3165
1.3025
1.2905
1.2805
1.2725
1.2665
1.2625
1.2605
1.2605
1.2625
1.2665
1.2725
1.2805
1.2905
1.3025
1.3165
1.3325
1.3505
1.3705
1.3925
1.4165
1.4425
1.4705
1.5005
1.5325
1.5665
1.6025
1.6405
1.6805
1.7225
1.7665
1.8125
1.8605
1.9105
1.9625
2.0165
2.0725
2.1305
2.1905
2.2525
2.3165
2.3825
2.4505
2.5205
2.5925
2.6665
2.7425
2.8205
2.9005
2.9825
3.0665
3.1525
3.2405
3.3305
3.4225
3.5165
3.6125
3.7105
3.6405
3.5425
3.4465
3.3525
3.2605
3.1705
3.0825
2.9965
2.9125
2.8305
2.7505
2.6725
2.5965
2.5225
2.4505
2.3805
2.3125
2.2465
2.1825
2.1205
2.0605
2.0025
1.9465
1.8925
1.8405
1.7905
1.7425
1.6965
1.6525
1.6105
1.5705
1.5325
1.4965
1.4625
1.4305
1.4005
1.3725
1.3465
1.3225
1.3005
1.2805
1.2625
1.2465
1.2325
1.2205
1.2105
1.2025
1.1965
1.1925
1.1905
1.1905
1.1925
1.1965
1.2025
1.2105
1.2205
1.2325
1.2465
1.2625
1.2805
1.3005
1.3225
1.3465
1.3725
1.4005
1.4305
1.4625
1.4965
1.5325
1.5705
1.6105
1.6525
1.6965
1.7425
1.7905
1.8405
1.8925
1.9465
2.0025
2.0605
2.1205
2.1825
2.2465
2.3125
2.3805
2.4505
2.5225
2.5965
2.6725
2.7505
2.8305
2.9125
2.9965
3.0825
3.1705
3.2605
3.3525
3.4465
3.5425
3.6405
3.5725
3.4745
3.3785
3.2845
3.1925
3.1025
3.0145
2.9285
2.8445
2.7625
2.6825
2.6045
2.5285
2.4545
2.3825
2.3125
2.2445
2.1785
2.1145
2.0525
1.9925
1.9345
1.8785
1.8245
1.7725
1.7225
1.6745
1.6285
1.5845
1.5425
1.5025
1.4645
1.4285
1.3945
1.3625
1.3325
1.3045
1.2785
1.2545
1.2325
1.2125
1.1945
1.1785
1.1645
1.1525
1.1425
1.1345
1.1285
1.1245
1.1225
1.1225
1.1245
1.1285
1.1345
1.1425
1.1525
1.1645
1.1785
1.1945
1.2125
1.2325
1.2545
1.2785
1.3045
1.3325
1.3625
1.3945
1.4285
1.4645
1.5025
1.5425
1.5845
1.6285
1.6745
1.7225
1.7725
1.8245
1.8785
1.9345
1.9925
2.0525
2.1145
2.1785
2.2445
2.3125
2.3825
2.4545
2.5285
2.6045
2.6825
2.7625
2.8445
2.9285
3.0145
3.1025
3.1925
3.2845
3.3785
3.4745
3.5725
3.5065
3.4085
3.3125
3.2185
3.1265
3.0365
2.9485
2.8625
2.7785
2.6965
2.6165
2.5385
2.4625
2.3885
2.3165
2.2465
2.1785
2.1125
2.0485
1.9865
1.9265
1.8685
1.8125
1.7585
1.7065
1.6565
1.6085
1.5625
1.5185
1.4765
1.4365
1.3985
1.3625
1.3285
1.2965
1.2665
1.2385
1.2125
1.1885
1.1665
1.1465
1.1285
1.1125
1.0985
1.0865
1.0765
1.0685
1.0625
1.0585
1.0565
1.0565
1.0585
1.0625
1.0685
1.0765
1.0865
1.0985
1.1125
1.1285
1.1465
1.1665
1.1885
1.2125
1.2385
1.2665
1.2965
1.3285
1.3625
1.3985
1.4365
1.4765
1.5185
1.5625
1.6085
1.6565
1.7065
1.7585
1.8125
1.8685
1.9265
1.9865
2.0485
2.1125
2.1785
2.2465
2.3165
2.3885
2.4625
2.5385
2.6165
2.6965
2.7785
2.8625
2.9485
3.0365
3.1265
3.2185
3.3125
3.4085
3.5065
3.4425
3.3445
3.2485
3.1545
3.0625
2.9725
2.8845
2.7985
2.7145
2.6325
2.5525
2.4745
2.3985
2.3245
2.2525
2.1825
2.1145
2.0485
1.9845
1.9225
1.8625
1.8045
1.7485
1.6945
1.6425
1.5925
1.5445
1.4985
1.4545
1.4125
1.3725
1.3345
1.2985
1.2645
1.2325
1.2025
1.1745
1.1485
1.1245
1.1025
1.0825
1.0645
1.0485
1.0345
1.0225
1.0125
1.0045
0.9985
0.9945
0.9925
0.9925
0.9945
0.9985
1.0045
1.0125
1.0225
1.0345
1.0485
1.0645
1.0825
1.1025
1.1245
1.1485
1.1745
1.2025
1.2325
1.2645
1.2985
1.3345
1.3725
1.4125
1.4545
1.4985
1.5445
1.5925
1.6425
1.6945
1.7485
1.8045
1.8625
1.9225
1.9845
2.0485
2.1145
2.1825
2.2525
2.3245
2.3985
2.4745
2.5525
2.6325
2.7145
2.7985
2.8845
2.9725
3.0625
3.1545
3.2485
3.3445
3.4425
3.3805
3.2825
3.1865
3.0925
3.0005
2.9105
2.8225
2.7365
2.6525
2.5705
2.4905
2.4125
2.3365
2.2625
2.1905
2.1205
2.0525
1.9865
1.9225
1.8605
1.8005
1.7425
1.6865
1.6325
1.5805
1.5305
1.4825
1.4365
1.3925
1.3505
1.3105
1.2725
1.2365
1.2025
1.1705
1.1405
1.1125
1.0865
1.0625
1.0405
1.0205
1.0025
0.9865
0.9725
0.9605
0.9505
0.9425
0.9365
0.9325
0.9305
0.9305
0.9325
0.9365
0.9425
0.9505
0.9605
0.9725
0.9865
1.0025
1.0205
1.0405
1.0625
1.0865
1.1125
1.1405
1.1705
1.2025
1.2365
1.2725
1.3105
1.3505
1.3925
1.4365
1.4825
1.5305
1.5805
1.6325
1.6865
1.7425
1.8005
1.8605
1.9225
1.9865
2.0525
2.1205
2.1905
2.2625
2.3365
2.4125
2.4905
2.5705
2.6525
2.7365
2.8225
2.9105
3.0005
3.0925
3.1865
3.2825
3.3805
3.3205
3.2225
3.1265
3.0325
2.9405
2.8505
2.7625
2.6765
2.5925
2.5105
2.4305
2.3525
2.2765
2.2025
2.1305
2.0605
1.9925
1.9265
1.8625
1.8005
1.7405
1.6825
1.6265
1.5725
1.5205
1.4705
1.4225
1.3765
1.3325
1.2905
1.2505
1.2125
1.1765
1.1425
1.1105
1.0805
1.0525
1.0265
1.0025
0.9805
0.9605
0.9425
0.9265
0.9125
0.9005
0.8905
0.8825
0.8765
0.8725
0.8705
0.8705
0.8725
0.8765
0.8825
0.8905
0.9005
0.9125
0.9265
0.9425
0.9605
0.9805
1.0025
1.0265
1.0525
1.0805
1.1105
1.1425
1.1765
1.2125
1.2505
1.2905
1.3325
1.3765
1.4225
1.4705
1.5205
1.5725
1.6265
1.6825
1.7405
1.8005
1.8625
1.9265
1.9925
2.0605
2.1305
2.2025
2.2765
2.3525
2.4305
2.5105
2.5925
2.6765
2.7625
2.8505
2.9405
3.0325
3.1265
3.2225
3.3205
3.2625
3.1645
3.0685
2.9745
2.8825
2.7925
2.7045
2.6185
2.5345
2.4525
2.3725
2.2945
2.2185
2.1445
2.0725
2.0025
1.9345
1.8685
1.8045
1.7425
1.6825
1.6245
1.5685
1.5145
1.4625
1.4125
1.3645
1.3185
1.2745
1.2325
1.1925
1.1545
1.1185
1.0845
1.0525
1.0225
0.9945
0.9685
0.9445
0.9225
0.9025
0.8845
0.8685
0.8545
0.8425
0.8325
0.8245
0.8185
0.8145
0.8125
0.8125
0.8145
0.8185
0.8245
0.8325
0.8425
0.8545
0.8685
0.8845
0.9025
0.9225
0.9445
0.9685
0.9945
1.0225
1.0525
1.0845
1.1185
1.1545
1.1925
1.2325
1.2745
1.3185
1.3645
1.4125
1.4625
1.5145
1.5685
1.6245
1.6825
1.7425
1.8045
1.8685
1.9345
2.0025
2.0725
2.1445
2.2185
2.2945
2.3725
2.4525
2.5345
2.6185
2.7045
2.7925
2.8825
2.9745
3.0685
3.1645
3.2625
3.2065
3.1085
3.0125
2.9185
2.8265
2.7365
2.6485
2.5625
2.4785
2.3965
2.3165
2.2385
2.1625
2.0885
2.0165
1.9465
1.8785
1.8125
1.7485
1.6865
1.6265
1.5685
1.5125
1.4585
1.4065
1.3565
1.3085
1.2625
1.2185
1.1765
1.1365
1.0985
1.0625
1.0285
0.9965
0.9665
0.9385
0.9125
0.8885
0.8665
0.8465
0.8285
0.8125
0.7985
0.7865
0.7765
0.7685
0.7625
0.7585
0.7565
0.7565
0.7585
0.7625
0.7685
0.7765
0.7865
0.7985
0.8125
0.8285
0.8465
0.8665
0.8885
0.9125
0.9385
0.9665
0.9965
1.0285
1.0625
1.0985
1.1365
1.1765
1.2185
1.2625
1.3085
1.3565
1.4065
1.4585
1.5125
1.5685
1.6265
1.6865
1.7485
1.8125
1.8785
1.9465
2.0165
2.0885
2.1625
2.2385
2.3165
2.3965
2.4785
2.5625
2.6485
2.7365
2.8265
2.9185
3.0125
3.1085
3.2065
3.1525
3.0545
2.9585
2.8645
2.7725
2.6825
2.5945
2.5085
2.4245
2.3425
2.2625
2.1845
2.1085
2.0345
1.9625
1.8925
1.8245
1.7585
1.6945
1.6325
1.5725
1.5145
1.4585
1.4045
1.3525
1.3025
1.2545
1.2085
1.1645
1.1225
1.0825
1.0445
1.0085
0.9745
0.9425
0.9125
0.8845
0.8585
0.8345
0.8125
0.7925
0.7745
0.7585
0.7445
0.7325
0.7225
0.7145
0.7085
0.7045
0.7025
0.7025
0.7045
0.7085
0.7145
0.7225
0.7325
0.7445
0.7585
0.7745
0.7925
0.8125
0.8345
0.8585
0.8845
0.9125
0.9425
0.9745
1.0085
1.0445
1.0825
1.1225
1.1645
1.2085
1.2545
1.3025
1.3525
1.4045
1.4585
1.5145
1.5725
1.6325
1.6945
1.7585
1.8245
1.8925
1.9625
2.0345
2.1085
2.1845
2.2625
2.3425
2.4245
2.5085
2.5945
2.6825
2.7725
2.8645
2.9585
3.0545
3.1525
3.1005
3.0025
2.9065
2.8125
2.7205
2.6305
2.5425
2.4565
2.3725
2.2905
2.2105
2.1325
2.0565
1.9825
1.9105
1.8405
1.7725
1.7065
1.6425
1.5805
1.5205
1.4625
1.4065
1.3525
1.3005
1.2505
1.2025
1.1565
1.1125
1.0705
1.0305
0.9925
0.9565
0.9225
0.8905
0.8605
0.8325
0.8065
0.7825
0.7605
0.7405
0.7225
0.7065
0.6925
0.6805
0.6705
0.6625
0.6565
0.6525
0.6505
0.6505
0.6525
0.6565
0.6625
0.6705
0.6805
0.6925
0.7065
0.7225
0.7405
0.7605
0.7825
0.8065
0.8325
0.8605
0.8905
0.9225
0.9565
0.9925
1.0305
1.0705
1.1125
1.1565
1.2025
1.2505
1.3005
1.3525
1.4065
1.4625
1.5205
1.5805
1.6425
1.7065
1.7725
1.8405
1.9105
1.9825
2.0565
2.1325
2.2105
2.2905
2.3725
2.4565
2.5425
2.6305
2.7205
2.8125
2.9065
3.0025
3.1005
3.0505
2.9525
2.8565
2.7625
2.6705
2.5805
2.4925
2.4065
2.3225
2.2405
2.1605
2.0825
2.0065
1.9325
1.8605
1.7905
1.7225
1.6565
1.5925
1.5305
1.4705
1.4125
1.3565
1.3025
1.2505
1.2005
1.1525
1.1065
1.0625
1.0205
0.9805
0.9425
0.9065
0.8725
0.8405
0.8105
0.7825
0.7565
0.7325
0.7105
0.6905
0.6725
0.6565
0.6425
0.6305
0.6205
0.6125
0.6065
0.6025
0.6005
0.6005
0.6025
0.6065
0.6125
0.6205
0.6305
0.6425
0.6565
0.6725
0.6905
0.7105
0.7325
0.7565
0.7825
0.8105
0.8405
0.8725
0.9065
0.9425
0.9805
1.0205
1.0625
1.1065
1.1525
1.2005
1.2505
1.3025
1.3565
1.4125
1.4705
1.5305
1.5925
1.6565
1.7225
1.7905
1.8605
1.9325
2.0065
2.0825
2.1605
2.2405
2.3225
2.4065
2.4925
2.5805
2.6705
2.7625
2.8565
2.9525
3.0505
3.0025
2.9045
2.8085
2.7145
2.6225
2.5325
2.4445
2.3585
2.2745
2.1925
2.1125
2.0345
1.9585
1.8845
1.8125
1.7425
1.6745
1.6085
1.5445
1.4825
1.4225
1.3645
1.3085
1.2545
1.2025
1.1525
1.1045
1.0585
1.0145
0.9725
0.9325
0.8945
0.8585
0.8245
0.7925
0.7625
0.7345
0.7085
0.6845
0.6625
0.6425
0.6245
0.6085
0.5945
0.5825
0.5725
0.5645
0.5585
0.5545
0.5525
0.5525
0.5545
0.5585
0.5645
0.5725
0.5825
0.5945
0.6085
0.6245
0.6425
0.6625
0.6845
0.7085
0.7345
0.7625
0.7925
0.8245
0.8585
0.8945
0.9325
0.9725
1.0145
1.0585
1.1045
1.1525
1.2025
1.2545
1.3085
1.3645
1.4225
1.4825
1.5445
1.6085
1.6745
1.7425
1.8125
1.8845
1.9585
2.0345
2.1125
2.1925
2.2745
2.3585
2.4445
2.5325
2.6225
2.7145
2.8085
2.9045
3.0025
2.9565
2.8585
2.7625
2.6685
2.5765
2.4865
2.3985
2.3125
2.2285
2.1465
2.0665
1.9885
1.9125
1.8385
1.7665
1.6965
1.6285
1.5625
1.4985
1.4365
1.3765
1.3185
1.2625
1.2085
1.1565
1.1065
1.0585
1.0125
0.9685
0.9265
0.8865
0.8485
0.8125
0.7785
0.7465
0.7165
0.6885
0.6625
0.6385
0.6165
0.5965
0.5785
0.5625
0.5485
0.5365
0.5265
0.5185
0.5125
0.5085
0.5065
0.5065
0.5085
0.5125
0.5185
0.5265
0.5365
0.5485
0.5625
0.5785
0.5965
0.6165
0.6385
0.6625
0.6885
0.7165
0.7465
0.7785
0.8125
0.8485
0.8865
0.9265
0.9685
1.0125
1.0585
1.1065
1.1565
1.2085
1.2625
1.3185
1.3765
1.4365
1.4985
1.5625
1.6285
1.6965
1.7665
1.8385
1.9125
1.9885
2.0665
2.1465
2.2285
2.3125
2.3985
2.4865
2.5765
2.6685
2.7625
2.8585
2.9565
2.9125
2.8145
2.7185
2.6245
2.5325
2.4425
2.3545
2.2685
2.1845
2.1025
2.0225
1.9445
1.8685
1.7945
1.7225
1.6525
1.5845
1.5185
1.4545
1.3925
1.3325
1.2745
1.2185
1.1645
1.1125
1.0625
1.0145
0.9685
0.9245
0.8825
0.8425
0.8045
0.7685
0.7345
0.7025
0.6725
0.6445
0.6185
0.5945
0.5725
0.5525
0.5345
0.5185
0.5045
0.4925
0.4825
0.4745
0.4685
0.4645
0.4625
0.4625
0.4645
0.4685
0.4745
0.4825
0.4925
0.5045
0.5185
0.5345
0.5525
0.5725
0.5945
0.6185
0.6445
0.6725
0.7025
0.7345
0.7685
0.8045
0.8425
0.8825
0.9245
0.9685
1.0145
1.0625
1.1125
1.1645
1.2185
1.2745
1.3325
1.3925
1.4545
1.5185
1.5845
1.6525
1.7225
1.7945
1.8685
1.9445
2.0225
2.1025
2.1845
2.2685
2.3545
2.4425
2.5325
2.6245
2.7185
2.8145
2.9125
2.8705
2.7725
2.6765
2.5825
2.4905
2.4005
2.3125
2.2265
2.1425
2.0605
1.9805
1.9025
1.8265
1.7525
1.6805
1.6105
1.5425
1.4765
1.4125
1.3505
1.2905
1.2325
1.1765
1.1225
1.0705
1.0205
0.9725
0.9265
0.8825
0.8405
0.8005
0.7625
0.7265
0.6925
0.6605
0.6305
0.6025
0.5765
0.5525
0.5305
0.5105
0.4925
0.4765
0.4625
0.4505
0.4405
0.4325
0.4265
0.4225
0.4205
0.4205
0.4225
0.4265
0.4325
0.4405
0.4505
0.4625
0.4765
0.4925
0.5105
0.5305
0.5525
0.5765
0.6025
0.6305
0.6605
0.6925
0.7265
0.7625
0.8005
0.8405
0.8825
0.9265
0.9725
1.0205
1.0705
1.1225
1.1765
1.2325
1.2905
1.3505
1.4125
1.4765
1.5425
1.6105
1.6805
1.7525
1.8265
1.9025
1.9805
2.0605
2.1425
2.2265
2.3125
2.4005
2.4905
2.5825
2.6765
2.7725
2.8705
2.8305
2.7325
2.6365
2.5425
2.4505
2.3605
2.2725
2.1865
2.1025
2.0205
1.9405
1.8625
1.7865
1.7125
1.6405
1.5705
1.5025
1.4365
1.3725
1.3105
1.2505
1.1925
1.1365
1.0825
1.0305
0.9805
0.9325
0.8865
0.8425
0.8005
0.7605
0.7225
0.6865
0.6525
0.6205
0.5905
0.5625
0.5365
0.5125
0.4905
0.4705
0.4525
0.4365
0.4225
0.4105
0.4005
0.3925
0.3865
0.3825
0.3805
0.3805
0.3825
0.3865
0.3925
0.4005
0.4105
0.4225
0.4365
0.4525
0.4705
0.4905
0.5125
0.5365
0.5625
0.5905
0.6205
0.6525
0.6865
0.7225
0.7605
0.8005
0.8425
0.8865
0.9325
0.9805
1.0305
1.0825
1.1365
1.1925
1.2505
1.3105
1.3725
1.4365
1.5025
1.5705
1.6405
1.7125
1.7865
1.8625
1.9405
2.0205
2.1025
2.1865
2.2725
2.3605
2.4505
2.5425
2.6365
2.7325
2.8305
2.7925
2.6945
2.5985
2.5045
2.4125
2.3225
2.2345
2.1485
2.0645
1.9825
1.9025
1.8245
1.7485
1.6745
1.6025
1.5325
1.4645
1.3985
1.3345
1.2725
1.2125
1.1545
1.0985
1.0445
0.9925
0.9425
0.8945
0.8485
0.8045
0.7625
0.7225
0.6845
0.6485
0.6145
0.5825
0.5525
0.5245
0.4985
0.4745
0.4525
0.4325
0.4145
0.3985
0.3845
0.3725
0.3625
0.3545
0.3485
0.3445
0.3425
0.3425
0.3445
0.3485
0.3545
0.3625
0.3725
0.3845
0.3985
0.4145
0.4325
0.4525
0.4745
0.4985
0.5245
0.5525
0.5825
0.6145
0.6485
0.6845
0.7225
0.7625
0.8045
0.8485
0.8945
0.9425
0.9925
1.0445
1.0985
1.1545
1.2125
1.2725
1.3345
1.3985
1.4645
1.5325
1.6025
1.6745
1.7485
1.8245
1.9025
1.9825
2.0645
2.1485
2.2345
2.3225
2.4125
2.5045
2.5985
2.6945
2.7925
2.7565
2.6585
2.5625
2.4685
2.3765
2.2865
2.1985
2.1125
2.0285
1.9465
1.8665
1.7885
1.7125
1.6385
1.5665
1.4965
1.4285
1.3625
1.2985
1.2365
1.1765
1.1185
1.0625
1.0085
0.9565
0.9065
0.8585
0.8125
0.7685
0.7265
0.6865
0.6485
0.6125
0.5785
0.5465
0.5165
0.4885
0.4625
0.4385
0.4165
0.3965
0.3785
0.3625
0.3485
0.3365
0.3265
0.3185
0.3125
0.3085
0.3065
0.3065
0.3085
0.3125
0.3185
0.3265
0.3365
0.3485
0.3625
0.3785
0.3965
0.4165
0.4385
0.4625
0.4885
0.5165
0.5465
0.5785
0.6125
0.6485
0.6865
0.7265
0.7685
0.8125
0.8585
0.9065
0.9565
1.0085
1.0625
1.1185
1.1765
1.2365
1.2985
1.3625
1.4285
1.4965
1.5665
1.6385
1.7125
1.7885
1.8665
1.9465
2.0285
2.1125
2.1985
2.2865
2.3765
2.4685
2.5625
2.6585
2.7565
2.7225
2.6245
2.5285
2.4345
2.3425
2.2525
2.1645
2.0785
1.9945
1.9125
1.8325
1.7545
1.6785
1.6045
1.5325
1.4625
1.3945
1.3285
1.2645
1.2025
1.1425
1.0845
1.0285
0.9745
0.9225
0.8725
0.8245
0.7785
0.7345
0.6925
0.6525
0.6145
0.5785
0.5445
0.5125
0.4825
0.4545
0.4285
0.4045
0.3825
0.3625
0.3445
0.3285
0.3145
0.3025
0.2925
0.2845
0.2785
0.2745
0.2725
0.2725
0.2745
0.2785
0.2845
0.2925
0.3025
0.3145
0.3285
0.3445
0.3625
0.3825
0.4045
0.4285
0.4545
0.4825
0.5125
0.5445
0.5785
0.6145
0.6525
0.6925
0.7345
0.7785
0.8245
0.8725
0.9225
0.9745
1.0285
1.0845
1.1425
1.2025
1.2645
1.3285
1.3945
1.4625
1.5325
1.6045
1.6785
1.7545
1.8325
1.9125
1.9945
2.0785
2.1645
2.2525
2.3425
2.4345
2.5285
2.6245
2.7225
2.6905
2.5925
2.4965
2.4025
2.3105
2.2205
2.1325
2.0465
1.9625
1.8805
1.8005
1.7225
1.6465
1.5725
1.5005
1.4305
1.3625
1.2965
1.2325
1.1705
1.1105
1.0525
0.9965
0.9425
0.8905
0.8405
0.7925
0.7465
0.7025
0.6605
0.6205
0.5825
0.5465
0.5125
0.4805
0.4505
0.4225
0.3965
0.3725
0.3505
0.3305
0.3125
0.2965
0.2825
0.2705
0.2605
0.2525
0.2465
0.2425
0.2405
0.2405
0.2425
0.2465
0.2525
0.2605
0.2705
0.2825
0.2965
0.3125
0.3305
0.3505
0.3725
0.3965
0.4225
0.4505
0.4805
0.5125
0.5465
0.5825
0.6205
0.6605
0.7025
0.7465
0.7925
0.8405
0.8905
0.9425
0.9965
1.0525
1.1105
1.1705
1.2325
1.2965
1.3625
1.4305
1.5005
1.5725
1.6465
1.7225
1.8005
1.8805
1.9625
2.0465
2.1325
2.2205
2.3105
2.4025
2.4965
2.5925
2.6905
2.6605
2.5625
2.4665
2.3725
2.2805
2.1905
2.1025
2.0165
1.9325
1.8505
1.7705
1.6925
1.6165
1.5425
1.4705
1.4005
1.3325
1.2665
1.2025
1.1405
1.0805
1.0225
0.9665
0.9125
0.8605
0.8105
0.7625
0.7165
0.6725
0.6305
0.5905
0.5525
0.5165
0.4825
0.4505
0.4205
0.3925
0.3665
0.3425
0.3205
0.3005
0.2825
0.2665
0.2525
0.2405
0.2305
0.2225
0.2165
0.2125
0.2105
0.2105
0.2125
0.2165
0.2225
0.2305
0.2405
0.2525
0.2665
0.2825
0.3005
0.3205
0.3425
0.3665
0.3925
0.4205
0.4505
0.4825
0.5165
0.5525
0.5905
0.6305
0.6725
0.7165
0.7625
0.8105
0.8605
0.9125
0.9665
1.0225
1.0805
1.1405
1.2025
1.2665
1.3325
1.4005
1.4705
1.5425
1.6165
1.6925
1.7705
1.8505
1.9325
2.0165
2.1025
2.1905
2.2805
2.3725
2.4665
2.5625
2.6605
2.6325
2.5345
2.4385
2.3445
2.2525
2.1625
2.0745
1.9885
1.9045
1.8225
1.7425
1.6645
1.5885
1.5145
1.4425
1.3725
1.3045
1.2385
1.1745
1.1125
1.0525
0.9945
0.9385
0.8845
0.8325
0.7825
0.7345
0.6885
0.6445
0.6025
0.5625
0.5245
0.4885
0.4545
0.4225
0.3925
0.3645
0.3385
0.3145
0.2925
0.2725
0.2545
0.2385
0.2245
0.2125
0.2025
0.1945
0.1885
0.1845
0.1825
0.1825
0.1845
0.1885
0.1945
0.2025
0.2125
0.2245
0.2385
0.2545
0.2725
0.2925
0.3145
0.3385
0.3645
0.3925
0.4225
0.4545
0.4885
0.5245
0.5625
0.6025
0.6445
0.6885
0.7345
0.7825
0.8325
0.8845
0.9385
0.9945
1.0525
1.1125
1.1745
1.2385
1.3045
1.3725
1.4425
1.5145
1.5885
1.6645
1.7425
1.8225
1.9045
1.9885
2.0745
2.1625
2.2525
2.3445
2.4385
2.5345
2.6325
2.6065
2.5085
2.4125
2.3185
2.2265
2.1365
2.0485
1.9625
1.8785
1.7965
1.7165
1.6385
1.5625
1.4885
1.4165
1.3465
1.2785
1.2125
1.1485
1.0865
1.0265
0.9685
0.9125
0.8585
0.8065
0.7565
0.7085
0.6625
0.6185
0.5765
0.5365
0.4985
0.4625
0.4285
0.3965
0.3665
0.3385
0.3125
0.2885
0.2665
0.2465
0.2285
0.2125
0.1985
0.1865
0.1765
0.1685
0.1625
0.1585
0.1565
0.1565
0.1585
0.1625
0.1685
0.1765
0.1865
0.1985
0.2125
0.2285
0.2465
0.2665
0.2885
0.3125
0.3385
0.3665
0.3965
0.4285
0.4625
0.4985
0.5365
0.5765
0.6185
0.6625
0.7085
0.7565
0.8065
0.8585
0.9125
0.9685
1.0265
1.0865
1.1485
1.2125
1.2785
1.3465
1.4165
1.4885
1.5625
1.6385
1.7165
1.7965
1.8785
1.9625
2.0485
2.1365
2.2265
2.3185
2.4125
2.5085
2.6065
2.5825
2.4845
2.3885
2.2945
2.2025
2.1125
2.0245
1.9385
1.8545
1.7725
1.6925
1.6145
1.5385
1.4645
1.3925
1.3225
1.2545
1.1885
1.1245
1.0625
1.0025
0.9445
0.8885
0.8345
0.7825
0.7325
0.6845
0.6385
0.5945
0.5525
0.5125
0.4745
0.4385
0.4045
0.3725
0.3425
0.3145
0.2885
0.2645
0.2425
0.2225
0.2045
0.1885
0.1745
0.1625
0.1525
0.1445
0.1385
0.1345
0.1325
0.1325
0.1345
0.1385
0.1445
0.1525
0.1625
0.1745
0.1885
0.2045
0.2225
0.2425
0.2645
0.2885
0.3145
0.3425
0.3725
0.4045
0.4385
0.4745
0.5125
0.5525
0.5945
0.6385
0.6845
0.7325
0.7825
0.8345
0.8885
0.9445
1.0025
1.0625
1.1245
1.1885
1.2545
1.3225
1.3925
1.4645
1.5385
1.6145
1.6925
1.7725
1.8545
1.9385
2.0245
2.1125
2.2025
2.2945
2.3885
2.4845
2.5825
2.5605
2.4625
2.3665
2.2725
2.1805
2.0905
2.0025
1.9165
1.8325
1.7505
1.6705
1.5925
1.5165
1.4425
1.3705
1.3005
1.2325
1.1665
1.1025
1.0405
0.9805
0.9225
0.8665
0.8125
0.7605
0.7105
0.6625
0.6165
0.5725
0.5305
0.4905
0.4525
0.4165
0.3825
0.3505
0.3205
0.2925
0.2665
0.2425
0.2205
0.2005
0.1825
0.1665
0.1525
0.1405
0.1305
0.1225
0.1165
0.1125
0.1105
0.1105
0.1125
0.1165
0.1225
0.1305
0.1405
0.1525
0.1665
0.1825
0.2005
0.2205
0.2425
0.2665
0.2925
0.3205
0.3505
0.3825
0.4165
0.4525
0.4905
0.5305
0.5725
0.6165
0.6625
0.7105
0.7605
0.8125
0.8665
0.9225
0.9805
1.0405
1.1025
1.1665
1.2325
1.3005
1.3705
1.4425
1.5165
1.5925
1.6705
1.7505
1.8325
1.9165
2.0025
2.0905
2.1805
2.2725
2.3665
2.4625
2.5605
2.5405
2.4425
2.3465
2.2525
2.1605
2.0705
1.9825
1.8965
1.8125
1.7305
1.6505
1.5725
1.4965
1.4225
1.3505
1.2805
1.2125
1.1465
1.0825
1.0205
0.9605
0.9025
0.8465
0.7925
0.7405
0.6905
0.6425
0.5965
0.5525
0.5105
0.4705
0.4325
0.3965
0.3625
0.3305
0.3005
0.2725
0.2465
0.2225
0.2005
0.1805
0.1625
0.1465
0.1325
0.1205
0.1105
0.1025
0.0965
0.0925
0.0905
0.0905
0.0925
0.0965
0.1025
0.1105
0.1205
0.1325
0.1465
0.1625
0.1805
0.2005
0.2225
0.2465
0.2725
0.3005
0.3305
0.3625
0.3965
0.4325
0.4705
0.5105
0.5525
0.5965
0.6425
0.6905
0.7405
0.7925
0.8465
0.9025
0.9605
1.0205
1.0825
1.1465
1.2125
1.2805
1.3505
1.4225
1.4965
1.5725
1.6505
1.7305
1.8125
1.8965
1.9825
2.0705
2.1605
2.2525
2.3465
2.4425
2.5405
2.5225
2.4245
2.3285
2.2345
2.1425
2.0525
1.9645
1.8785
1.7945
1.7125
1.6325
1.5545
1.4785
1.4045
1.3325
1.2625
1.1945
1.1285
1.0645
1.0025
0.9425
0.8845
0.8285
0.7745
0.7225
0.6725
0.6245
0.5785
0.5345
0.4925
0.4525
0.4145
0.3785
0.3445
0.3125
0.2825
0.2545
0.2285
0.2045
0.1825
0.1625
0.1445
0.1285
0.1145
0.1025
0.0925
0.0845
0.0785
0.0745
0.0725
0.0725
0.0745
0.0785
0.0845
0.0925
0.1025
0.1145
0.1285
0.1445
0.1625
0.1825
0.2045
0.2285